# vtk DataFile Version 2.0
Timestep 1
ASCII
DATASET STRUCTURED_POINTS
DIMENSIONS 400 50 1
ASPECT_RATIO 1 1 1
ORIGIN 0 0 0
POINT_DATA 20000
SCALARS magnitude float 1
LOOKUP_TABLE default
1.00007
1.00181
1.00355
1.00529
1.00703
1.00877
1.01051
1.01282
1.01531
1.01779
1.02028
1.02276
1.02525
1.02865
1.03284
1.03703
1.04124
1.04543
1.04962
1.05405
1.05901
1.06396
1.06892
1.07389
1.07885
1.08357
1.08474
1.08591
1.08709
1.08828
1.08947
1.09066
1.0898
1.08851
1.08721
1.08592
1.08463
1.08334
1.08292
1.08309
1.08327
1.08345
1.08363
1.08381
1.08328
1.08149
1.07971
1.07794
1.07616
1.0744
1.07218
1.06678
1.06139
1.056
1.0506
1.04521
1.03981
1.03564
1.03161
1.02758
1.02355
1.01952
1.01549
1.01497
1.01629
1.0176
1.01892
1.02024
1.02156
1.02404
1.02812
1.03221
1.03629
1.04037
1.04446
1.04817
1.0503
1.05244
1.05436
1.05342
1.05249
1.05156
1.04812
1.04458
1.04102
1.03747
1.03393
1.03037
1.02737
1.02459
1.02181
1.02015
1.01925
1.01834
1.01826
1.01905
1.01985
1.02159
1.02494
1.02828
1.03176
1.03563
1.03949
1.04316
1.04563
1.04809
1.05053
1.05047
1.05043
1.05039
1.04855
1.0465
1.04446
1.04208
1.03961
1.03714
1.03497
1.03295
1.03092
1.02949
1.02854
1.0276
1.02753
1.02862
1.0297
1.03129
1.03398
1.03667
1.03937
1.04217
1.04497
1.04765
1.04908
1.05051
1.05195
1.05143
1.05084
1.05025
1.04857
1.04671
1.04484
1.04274
1.04057
1.03839
1.03653
1.03486
1.03319
1.0323
1.03222
1.03215
1.03278
1.03461
1.03643
1.03851
1.04132
1.04414
1.0469
1.04939
1.05189
1.05435
1.05532
1.05628
1.05725
1.05637
1.05529
1.05422
1.05195
1.04937
1.04678
1.04412
1.04144
1.03876
1.03685
1.03557
1.03429
1.03391
1.03467
1.03544
1.03674
1.03918
1.04164
1.04422
1.04731
1.05042
1.05347
1.05597
1.05845
1.06094
1.06177
1.06256
1.06334
1.06233
1.06103
1.05971
1.05732
1.05453
1.05175
1.04879
1.04573
1.04267
1.0402
1.0383
1.03642
1.03545
1.03596
1.03649
1.03758
1.04026
1.04295
1.04575
1.0492
1.05265
1.05608
1.05884
1.06159
1.06435
1.06545
1.0664
1.06734
1.06653
1.06527
1.06401
1.06171
1.05892
1.05614
1.05323
1.05022
1.04721
1.0447
1.04283
1.04096
1.03979
1.04005
1.0403
1.04099
1.04327
1.04555
1.04792
1.05117
1.05442
1.05768
1.06053
1.06337
1.06622
1.06762
1.06878
1.06995
1.06947
1.06841
1.06736
1.06529
1.06262
1.05995
1.05714
1.05422
1.05129
1.0488
1.04702
1.04524
1.044
1.04423
1.04446
1.04499
1.04712
1.04924
1.0514
1.05425
1.05715
1.06011
1.06291
1.06552
1.06779
1.06918
1.07034
1.0715
1.07133
1.07055
1.06977
1.0681
1.06578
1.06344
1.06097
1.05832
1.05566
1.05335
1.05168
1.05001
1.04874
1.04891
1.04907
1.0494
1.0512
1.05301
1.05482
1.05741
1.06001
1.06261
1.065
1.06738
1.06975
1.07147
1.07276
1.07319
1.07281
1.07194
1.07108
1.0696
1.06752
1.06545
1.06328
1.06095
1.05862
1.05657
1.0552
1.05383
1.05272
1.05292
1.05312
1.05338
1.05493
1.05647
1.05802
1.0602
1.06243
1.06466
1.0669
1.06904
1.07088
1.07202
1.07285
1.07368
1.07363
1.07294
1.07225
1.07105
1.06925
1.06745
1.06561
1.06373
1.06184
1.06016
1.05919
1.05823
1.05741
1.05781
1.0582
1.05859
1.06004
1.06149
1.06295
1.06469
1.06647
1.06825
1.06985
1.07139
1.07293
1.0739
1.07454
1.07518
1.0751
1.07436
1.07362
1.07254
1.07096
1.06938
1.06784
1.0664
1.06495
1.06367
1.06314
1.06261
1.06214
1.06283
1.06352
1.06421
1.06578
1.06741
1.06904
1.07081
1.07262
1.07443
1.07582
1.07702
1.07822
1.07882
1.07898
1.07914
1.07889
1.07816
1.07743
1.07652
1.07528
1.07403
1.07287
1.07202
1.07117
1.07041
1.07029
1.07017
1.07005
1.00007
1.00179
1.00352
1.00525
1.00698
1.0087
1.01043
1.01276
1.01528
1.0178
1.0203
1.02282
1.02534
1.02879
1.03309
1.03737
1.04167
1.04595
1.05025
1.05477
1.05988
1.06498
1.0701
1.0752
1.08031
1.08517
1.08632
1.08748
1.08865
1.08983
1.09101
1.09219
1.09125
1.08986
1.08848
1.08709
1.08571
1.08432
1.0839
1.08413
1.08436
1.08459
1.08483
1.08506
1.08462
1.08298
1.08134
1.07969
1.07806
1.07644
1.07432
1.06866
1.063
1.05733
1.05167
1.04601
1.04036
1.03581
1.0314
1.027
1.02258
1.01818
1.01378
1.01327
1.01479
1.01632
1.01785
1.01938
1.02093
1.02381
1.02856
1.0333
1.03804
1.04279
1.04753
1.05161
1.05284
1.05407
1.05519
1.05489
1.05459
1.0543
1.05036
1.04625
1.04213
1.03802
1.0339
1.02979
1.02678
1.02421
1.02163
1.02013
1.01934
1.01855
1.01862
1.01961
1.0206
1.02253
1.02605
1.02957
1.03319
1.03713
1.04107
1.0448
1.04715
1.04951
1.05184
1.05158
1.05132
1.05107
1.04906
1.04685
1.04464
1.04218
1.03966
1.03713
1.03496
1.03297
1.03097
1.02963
1.02882
1.02802
1.02807
1.02926
1.03045
1.03212
1.03486
1.0376
1.04039
1.04334
1.04628
1.04913
1.05065
1.05218
1.05371
1.05303
1.05225
1.05148
1.04964
1.04759
1.04554
1.04326
1.0409
1.03854
1.03658
1.03489
1.0332
1.0323
1.03224
1.03217
1.03278
1.03453
1.03627
1.03831
1.04117
1.04404
1.04688
1.04967
1.05247
1.05522
1.05645
1.05769
1.05892
1.05803
1.05692
1.05582
1.05334
1.05049
1.04764
1.04478
1.04193
1.03908
1.03705
1.03566
1.03429
1.03383
1.03453
1.03525
1.03644
1.03866
1.04087
1.04327
1.04646
1.04965
1.05281
1.05564
1.05848
1.0613
1.06248
1.0636
1.06472
1.06379
1.06253
1.06125
1.05873
1.05576
1.05279
1.04962
1.04634
1.04305
1.04042
1.03842
1.03643
1.03535
1.03575
1.03616
1.03712
1.03961
1.04209
1.04474
1.04826
1.05178
1.05529
1.05837
1.06146
1.06455
1.06595
1.0672
1.06845
1.06776
1.06659
1.06542
1.06304
1.06012
1.05718
1.05408
1.05086
1.04762
1.0449
1.0428
1.04072
1.03936
1.03948
1.03961
1.0402
1.04246
1.04472
1.0471
1.05051
1.05392
1.05733
1.06045
1.06358
1.0667
1.0683
1.06967
1.07104
1.07063
1.0696
1.06858
1.06645
1.06366
1.06088
1.05794
1.05483
1.05173
1.04908
1.04712
1.04517
1.04379
1.0439
1.04401
1.04444
1.04655
1.04866
1.05081
1.05402
1.05712
1.06009
1.06293
1.0657
1.06835
1.06993
1.07126
1.0726
1.07247
1.07167
1.07089
1.06914
1.06667
1.0642
1.06157
1.05876
1.05595
1.05349
1.05171
1.04995
1.0486
1.04875
1.04889
1.04921
1.05106
1.05292
1.05477
1.05752
1.06028
1.06303
1.06555
1.06802
1.0705
1.07188
1.07292
1.07399
1.07384
1.07297
1.07211
1.07055
1.06831
1.06607
1.06374
1.06126
1.05879
1.0566
1.05514
1.05368
1.0525
1.05272
1.05294
1.05322
1.05486
1.0565
1.05814
1.06049
1.06289
1.06529
1.06726
1.06927
1.07169
1.07307
1.074
1.07492
1.07487
1.0741
1.07332
1.072
1.07003
1.06807
1.06607
1.06401
1.06196
1.06013
1.05905
1.05798
1.05706
1.05747
1.05788
1.05829
1.05989
1.06151
1.06313
1.06511
1.06714
1.06918
1.07095
1.07263
1.07432
1.07532
1.07593
1.07654
1.07638
1.07554
1.07469
1.07348
1.07172
1.06997
1.06826
1.06667
1.06508
1.06365
1.06301
1.06238
1.06182
1.06251
1.06319
1.06388
1.06558
1.06735
1.06911
1.07108
1.07309
1.07512
1.07669
1.07807
1.07945
1.08015
1.08036
1.08058
1.0803
1.07947
1.07865
1.07762
1.07621
1.07481
1.07349
1.07244
1.0714
1.07045
1.07023
1.07001
1.06979
1.00007
1.00178
1.00349
1.00522
1.00693
1.00864
1.01036
1.0127
1.01525
1.01779
1.02034
1.02288
1.02542
1.02895
1.03333
1.03771
1.0421
1.04648
1.05087
1.0555
1.06076
1.06601
1.07126
1.07651
1.08176
1.08677
1.08791
1.08905
1.09021
1.09137
1.09255
1.09372
1.0927
1.09122
1.08974
1.08826
1.08678
1.0853
1.08487
1.08516
1.08545
1.08574
1.08603
1.08631
1.08595
1.08445
1.08295
1.08146
1.07998
1.07849
1.07647
1.07054
1.06462
1.05868
1.05275
1.04683
1.0409
1.03599
1.0312
1.02641
1.02163
1.01684
1.01207
1.01156
1.0133
1.01503
1.01678
1.01854
1.0203
1.0236
1.029
1.0344
1.03981
1.04521
1.05061
1.05506
1.05537
1.05569
1.05601
1.05635
1.05669
1.05705
1.0526
1.04792
1.04325
1.03857
1.03389
1.02922
1.0262
1.02383
1.02146
1.02011
1.01944
1.01875
1.01898
1.02017
1.02136
1.02347
1.02716
1.03084
1.03462
1.03864
1.04265
1.04643
1.04869
1.05095
1.05316
1.05268
1.05222
1.05175
1.04958
1.0472
1.04483
1.04229
1.0397
1.03711
1.03494
1.03299
1.03102
1.02977
1.0291
1.02843
1.02861
1.02989
1.03119
1.03296
1.03575
1.03855
1.0414
1.0445
1.04761
1.0506
1.05223
1.05384
1.05547
1.05462
1.05366
1.05271
1.05069
1.04847
1.04625
1.04379
1.04123
1.03868
1.03663
1.03492
1.03321
1.03231
1.03225
1.03219
1.03278
1.03445
1.03612
1.03811
1.04102
1.04392
1.04686
1.04996
1.05304
1.0561
1.05759
1.05909
1.0606
1.0597
1.05857
1.05742
1.05473
1.05162
1.0485
1.04545
1.04243
1.03941
1.03724
1.03576
1.03429
1.03375
1.0344
1.03506
1.03614
1.03812
1.04011
1.04234
1.04561
1.04888
1.05214
1.05532
1.05849
1.06168
1.06318
1.06464
1.06609
1.06526
1.06403
1.0628
1.06015
1.05698
1.05383
1.05046
1.04696
1.04345
1.04065
1.03854
1.03644
1.03526
1.03554
1.03584
1.03666
1.03895
1.04125
1.04373
1.04733
1.05091
1.05449
1.05791
1.06133
1.06474
1.06645
1.068
1.06955
1.06899
1.06791
1.06682
1.06439
1.0613
1.05822
1.05494
1.0515
1.04805
1.04511
1.04279
1.04047
1.03892
1.03892
1.03892
1.03941
1.04165
1.04391
1.04629
1.04986
1.05342
1.05699
1.06038
1.06378
1.06717
1.069
1.07056
1.07213
1.07179
1.07079
1.06979
1.06761
1.06471
1.06182
1.05873
1.05545
1.05218
1.04936
1.04723
1.04511
1.04357
1.04356
1.04355
1.04387
1.04597
1.04808
1.05022
1.05355
1.0568
1.05996
1.06301
1.06601
1.06892
1.0707
1.07219
1.07369
1.0736
1.07279
1.07199
1.07016
1.06756
1.06497
1.06219
1.05921
1.05623
1.05361
1.05176
1.04989
1.04846
1.04859
1.04871
1.04902
1.05092
1.05282
1.05471
1.05763
1.06055
1.06347
1.06609
1.06866
1.07124
1.07266
1.07372
1.07496
1.07486
1.074
1.07315
1.07149
1.06909
1.06668
1.0642
1.06157
1.05895
1.05663
1.05508
1.05353
1.05228
1.05251
1.05275
1.05306
1.0548
1.05653
1.05826
1.06077
1.06334
1.06591
1.06795
1.07004
1.07264
1.07413
1.07515
1.07617
1.07611
1.07525
1.07439
1.07296
1.07082
1.06868
1.06652
1.0643
1.06209
1.06011
1.05891
1.05772
1.05671
1.05713
1.05756
1.05798
1.05975
1.06153
1.06331
1.06554
1.06783
1.07012
1.07206
1.07389
1.07571
1.07673
1.07731
1.07789
1.07767
1.07671
1.07576
1.07441
1.07249
1.07057
1.06869
1.06695
1.0652
1.06363
1.06289
1.06215
1.06149
1.06218
1.06287
1.06357
1.06539
1.06728
1.06917
1.07134
1.07358
1.07581
1.07757
1.07912
1.08069
1.08149
1.08175
1.08201
1.08172
1.08079
1.07986
1.07871
1.07715
1.07558
1.0741
1.07286
1.07162
1.0705
1.07018
1.06986
1.06954
1.00007
1.00177
1.00348
1.00518
1.00688
1.00858
1.01029
1.01265
1.01523
1.0178
1.02037
1.02294
1.02552
1.0291
1.03358
1.03805
1.04253
1.04701
1.05149
1.05624
1.06164
1.06703
1.07243
1.07782
1.08322
1.08836
1.08949
1.09062
1.09177
1.09292
1.09407
1.09525
1.09415
1.09257
1.091
1.08943
1.08786
1.08629
1.08585
1.0862
1.08654
1.08688
1.08722
1.08757
1.08729
1.08593
1.08457
1.08322
1.08189
1.08055
1.07861
1.07242
1.06623
1.06003
1.05384
1.04765
1.04145
1.03617
1.031
1.02584
1.02067
1.01552
1.01036
1.00985
1.0118
1.01375
1.01572
1.01769
1.01968
1.02339
1.02945
1.03551
1.04157
1.04763
1.05369
1.05851
1.0579
1.05731
1.05683
1.05781
1.05879
1.05979
1.05485
1.04961
1.04436
1.03912
1.03388
1.02864
1.02561
1.02345
1.02128
1.02009
1.01953
1.01896
1.01934
1.02073
1.02212
1.02442
1.02828
1.03213
1.03605
1.04013
1.04423
1.04806
1.05021
1.05237
1.05448
1.05379
1.05311
1.05243
1.05009
1.04755
1.04502
1.04239
1.03974
1.03709
1.03493
1.033
1.03107
1.02991
1.02938
1.02885
1.02915
1.03054
1.03193
1.03379
1.03664
1.03949
1.04242
1.04568
1.04894
1.05208
1.05379
1.05551
1.05724
1.05621
1.05507
1.05394
1.05174
1.04935
1.04696
1.04431
1.04156
1.03881
1.03667
1.03495
1.03321
1.03231
1.03226
1.03221
1.03278
1.03437
1.03596
1.03791
1.04087
1.04382
1.04684
1.05024
1.05362
1.05696
1.05874
1.0605
1.06227
1.06137
1.0602
1.05903
1.05612
1.05275
1.04937
1.04612
1.04293
1.03973
1.03743
1.03586
1.03429
1.03367
1.03427
1.03488
1.03584
1.03759
1.03934
1.04141
1.04476
1.04811
1.05147
1.055
1.05852
1.06205
1.06389
1.06568
1.06747
1.06672
1.06553
1.06434
1.06157
1.05821
1.05487
1.05129
1.04757
1.04384
1.04087
1.03866
1.03646
1.03516
1.03533
1.03552
1.0362
1.03829
1.0404
1.04273
1.04639
1.05005
1.05371
1.05746
1.0612
1.06494
1.06695
1.0688
1.07065
1.07023
1.06924
1.06824
1.06573
1.06249
1.05926
1.05579
1.05214
1.04847
1.04532
1.04276
1.04023
1.03848
1.03835
1.03823
1.03861
1.04085
1.0431
1.04548
1.0492
1.05292
1.05665
1.06032
1.06399
1.06765
1.06969
1.07145
1.07322
1.07295
1.07199
1.07101
1.06877
1.06577
1.06276
1.05953
1.05607
1.05263
1.04962
1.04733
1.04505
1.04335
1.04322
1.04309
1.04331
1.04539
1.04749
1.04962
1.05279
1.05615
1.0597
1.06318
1.06649
1.06952
1.07145
1.07311
1.07478
1.07474
1.07392
1.0731
1.0712
1.06846
1.06573
1.06281
1.05966
1.05651
1.05375
1.05179
1.04983
1.04832
1.04843
1.04853
1.04884
1.05077
1.05272
1.05466
1.05774
1.06082
1.06391
1.06664
1.0693
1.07198
1.07382
1.07526
1.07612
1.07589
1.07503
1.07418
1.07243
1.06987
1.0673
1.06465
1.06188
1.05911
1.05667
1.05502
1.05338
1.05205
1.05231
1.05256
1.05289
1.05473
1.05655
1.05839
1.06106
1.0638
1.06653
1.06903
1.07144
1.07372
1.07519
1.0763
1.07742
1.07734
1.0764
1.07547
1.0739
1.0716
1.0693
1.06697
1.06459
1.06222
1.06009
1.05877
1.05747
1.05636
1.0568
1.05723
1.05767
1.05961
1.06155
1.06348
1.06596
1.0685
1.07105
1.07316
1.07513
1.0771
1.07815
1.0787
1.07925
1.07895
1.07789
1.07684
1.07535
1.07325
1.07115
1.06911
1.06722
1.06533
1.0636
1.06276
1.06192
1.06117
1.06186
1.06255
1.06324
1.06518
1.06721
1.06923
1.0716
1.07405
1.07649
1.07844
1.08019
1.08192
1.08282
1.08314
1.08345
1.08313
1.08211
1.08108
1.07981
1.07809
1.07637
1.07472
1.07328
1.07185
1.07054
1.07012
1.0697
1.06928
1.00007
1.00176
1.00345
1.00514
1.00683
1.00851
1.01021
1.0126
1.0152
1.01779
1.0204
1.023
1.02561
1.02926
1.03383
1.03839
1.04297
1.04754
1.05212
1.05698
1.06251
1.06805
1.07359
1.07913
1.08469
1.08995
1.09107
1.09219
1.09333
1.09447
1.09561
1.09677
1.09559
1.09393
1.09227
1.0906
1.08894
1.08727
1.08683
1.08723
1.08763
1.08803
1.08842
1.08882
1.08863
1.08741
1.08619
1.08498
1.0838
1.08261
1.08077
1.07431
1.06785
1.06139
1.05493
1.04847
1.04203
1.03636
1.03081
1.02527
1.01973
1.01418
1.00865
1.00815
1.01031
1.01247
1.01465
1.01685
1.01908
1.0232
1.02992
1.03663
1.04335
1.05007
1.05678
1.06227
1.06241
1.06256
1.06271
1.06266
1.06263
1.06262
1.05709
1.05129
1.04548
1.03968
1.03388
1.02807
1.02439
1.02153
1.0187
1.0172
1.0166
1.01601
1.01671
1.0188
1.02089
1.02405
1.02902
1.03398
1.03901
1.04418
1.04937
1.05421
1.05685
1.05948
1.06207
1.0609
1.05973
1.05859
1.05509
1.05134
1.04759
1.04394
1.0403
1.03666
1.03369
1.03107
1.02844
1.02689
1.02624
1.02559
1.02608
1.02808
1.03008
1.03276
1.03691
1.04051
1.04408
1.04822
1.05226
1.05614
1.05878
1.0608
1.06229
1.06145
1.06071
1.06026
1.05734
1.05396
1.05059
1.04673
1.04269
1.03865
1.03557
1.0331
1.03063
1.02924
1.02897
1.0287
1.02934
1.03149
1.03364
1.03622
1.03997
1.04379
1.04772
1.05208
1.05634
1.0605
1.06332
1.06564
1.06738
1.06689
1.06574
1.06376
1.06031
1.05651
1.05287
1.04885
1.04467
1.0405
1.03726
1.0348
1.03235
1.03108
1.0313
1.03154
1.03249
1.03496
1.03697
1.03919
1.04282
1.0469
1.05127
1.05593
1.06047
1.06493
1.06808
1.07068
1.07251
1.0722
1.07117
1.06921
1.0659
1.06201
1.05767
1.05327
1.04884
1.04444
1.04082
1.03799
1.03515
1.03337
1.03329
1.03321
1.03371
1.03585
1.03814
1.04072
1.0446
1.04883
1.0533
1.05805
1.06274
1.06735
1.07056
1.07326
1.07525
1.07536
1.07468
1.07303
1.07004
1.06636
1.06226
1.05795
1.05348
1.04926
1.04546
1.0422
1.03921
1.03713
1.03683
1.03653
1.03672
1.03873
1.04124
1.04415
1.04806
1.0522
1.05656
1.06116
1.06563
1.06989
1.07291
1.07543
1.07725
1.07741
1.0768
1.07528
1.0727
1.06946
1.0656
1.06162
1.05751
1.05356
1.05001
1.04704
1.04426
1.04221
1.04195
1.0417
1.04179
1.04365
1.04598
1.04864
1.05223
1.05577
1.06012
1.06445
1.06853
1.07222
1.0749
1.07712
1.07869
1.07889
1.07836
1.07692
1.07461
1.07165
1.06821
1.06461
1.06083
1.05725
1.05401
1.0514
1.04942
1.04796
1.04772
1.04762
1.04783
1.05012
1.05242
1.05473
1.05807
1.06158
1.06525
1.06868
1.07201
1.07515
1.07746
1.07927
1.08012
1.08
1.07926
1.07774
1.07552
1.07266
1.06942
1.06611
1.06274
1.05952
1.05662
1.0544
1.05268
1.05139
1.05135
1.05154
1.05198
1.05426
1.05653
1.05881
1.06186
1.06508
1.06845
1.07159
1.07455
1.07709
1.07907
1.08068
1.08153
1.08141
1.08058
1.07898
1.07689
1.07423
1.07129
1.06833
1.06534
1.06256
1.06002
1.05815
1.05671
1.05564
1.05577
1.05631
1.05719
1.05926
1.06153
1.06408
1.06703
1.07004
1.07309
1.07582
1.07836
1.08052
1.08191
1.08281
1.08309
1.0827
1.08173
1.0802
1.07831
1.0759
1.07321
1.07054
1.06803
1.06573
1.06365
1.06229
1.06129
1.0606
1.06105
1.06183
1.0629
1.06497
1.06725
1.06979
1.07264
1.07556
1.07845
1.08097
1.08325
1.08516
1.08637
1.0871
1.0872
1.08677
1.08575
1.08428
1.08257
1.08049
1.07834
1.07622
1.07428
1.07251
1.07092
1.07006
1.06947
1.0691
1.00007
1.00175
1.00343
1.0051
1.00678
1.00846
1.01014
1.01254
1.01517
1.0178
1.02043
1.02306
1.02569
1.0294
1.03407
1.03873
1.0434
1.04807
1.05274
1.05771
1.06339
1.06907
1.07477
1.08046
1.08615
1.09155
1.09265
1.09376
1.09488
1.09601
1.09715
1.0983
1.09704
1.09529
1.09353
1.09177
1.09001
1.08826
1.08781
1.08826
1.08872
1.08917
1.08962
1.09007
1.08997
1.08889
1.08781
1.08675
1.08571
1.08467
1.08292
1.07621
1.06948
1.06276
1.05603
1.04932
1.04259
1.03656
1.03063
1.0247
1.01877
1.01285
1.00694
1.00644
1.0088
1.01119
1.01359
1.01603
1.01849
1.02302
1.03039
1.03776
1.04513
1.0525
1.05987
1.06606
1.06704
1.06804
1.06891
1.06774
1.06659
1.06546
1.05933
1.05297
1.0466
1.04023
1.03387
1.0275
1.02313
1.01953
1.01593
1.01412
1.01348
1.01285
1.01388
1.01671
1.01954
1.0236
1.02975
1.03588
1.04209
1.04842
1.05476
1.06068
1.06382
1.06698
1.07008
1.0684
1.06674
1.06509
1.06041
1.05537
1.05034
1.04558
1.04089
1.03621
1.03239
1.02901
1.02564
1.02368
1.02287
1.02209
1.02277
1.02541
1.02806
1.03147
1.03658
1.0412
1.04587
1.05132
1.0565
1.06144
1.06506
1.06761
1.06918
1.06853
1.06781
1.06708
1.06324
1.05882
1.05441
1.04929
1.04388
1.03848
1.03438
1.03113
1.02789
1.02598
1.02546
1.02495
1.02567
1.02843
1.0312
1.03445
1.03907
1.0441
1.04937
1.05507
1.06051
1.06573
1.06956
1.07246
1.07426
1.07395
1.07267
1.06993
1.06575
1.06122
1.05674
1.05176
1.04652
1.0413
1.03708
1.03368
1.03029
1.02832
1.02815
1.028
1.02875
1.03142
1.03383
1.0366
1.04103
1.04629
1.05205
1.0582
1.06412
1.06982
1.07395
1.07728
1.07954
1.07949
1.07836
1.07559
1.07153
1.06684
1.06129
1.05572
1.05018
1.04507
1.04077
1.03727
1.03378
1.03149
1.03112
1.03076
1.03105
1.03309
1.03563
1.03863
1.04309
1.0482
1.0538
1.05986
1.06559
1.0711
1.07569
1.07926
1.08153
1.08222
1.0815
1.07919
1.07556
1.07135
1.06613
1.06071
1.05513
1.05
1.04537
1.04137
1.03805
1.03572
1.03523
1.03476
1.0348
1.0367
1.03949
1.04285
1.0472
1.05204
1.0573
1.06268
1.06812
1.07319
1.07739
1.08068
1.08276
1.08344
1.08288
1.08087
1.07786
1.07399
1.06928
1.06443
1.05939
1.05463
1.05026
1.04651
1.04332
1.04099
1.04061
1.04025
1.04025
1.04211
1.04475
1.04797
1.05217
1.0567
1.06161
1.0668
1.07164
1.07593
1.07954
1.0823
1.08398
1.08449
1.08392
1.08199
1.07918
1.07565
1.07143
1.06696
1.0625
1.05828
1.05437
1.05103
1.04876
1.04712
1.04657
1.04643
1.04678
1.04944
1.05212
1.0548
1.05867
1.06283
1.06734
1.0717
1.07579
1.07933
1.08225
1.08432
1.0853
1.08532
1.08446
1.08243
1.07964
1.07622
1.07224
1.06811
1.06398
1.06009
1.05673
1.05385
1.05185
1.05041
1.05012
1.05034
1.05103
1.05376
1.05651
1.05926
1.0629
1.06677
1.07091
1.0749
1.07862
1.08172
1.084
1.08606
1.08683
1.08665
1.08564
1.08352
1.0808
1.07758
1.07395
1.07021
1.0665
1.06309
1.06007
1.05765
1.05603
1.05485
1.05475
1.05538
1.05659
1.05889
1.06157
1.06475
1.0683
1.07193
1.0756
1.07905
1.08228
1.08488
1.0867
1.088
1.08812
1.08763
1.08659
1.08455
1.08214
1.07925
1.07586
1.07245
1.06922
1.06633
1.06384
1.06196
1.06069
1.06007
1.06031
1.06123
1.06263
1.06492
1.06755
1.07063
1.07402
1.07749
1.08093
1.08406
1.08695
1.08913
1.09071
1.0918
1.09177
1.09122
1.0901
1.08818
1.08598
1.08344
1.08077
1.0781
1.07558
1.07339
1.07145
1.07017
1.06937
1.06892
1.00007
1.00174
1.0034
1.00506
1.00673
1.0084
1.01006
1.01248
1.01514
1.01781
1.02046
1.02312
1.02579
1.02956
1.03432
1.03908
1.04384
1.0486
1.05337
1.05844
1.06428
1.07011
1.07594
1.08177
1.08761
1.09314
1.09423
1.09533
1.09644
1.09756
1.09869
1.09983
1.09849
1.09664
1.09479
1.09294
1.09109
1.08924
1.08879
1.0893
1.08981
1.09031
1.09082
1.09133
1.09131
1.09037
1.08944
1.08852
1.08762
1.08673
1.08509
1.0781
1.07111
1.06412
1.05714
1.05016
1.04317
1.03678
1.03045
1.02414
1.01783
1.01152
1.00523
1.00475
1.0073
1.0099
1.01254
1.0152
1.01789
1.02285
1.03087
1.0389
1.04692
1.05495
1.06297
1.06984
1.07167
1.07353
1.07512
1.07282
1.07054
1.06829
1.06158
1.05465
1.04773
1.04079
1.03387
1.02695
1.02187
1.01752
1.01318
1.01104
1.01035
1.00968
1.01106
1.01462
1.0182
1.02316
1.03049
1.03782
1.04518
1.05267
1.06017
1.06714
1.0708
1.07448
1.0781
1.07591
1.07375
1.07162
1.06572
1.05941
1.05309
1.04723
1.0415
1.03576
1.03109
1.02696
1.02283
1.02045
1.01952
1.01859
1.01947
1.02274
1.02604
1.03
1.03541
1.04141
1.04782
1.05514
1.06192
1.06826
1.07293
1.07628
1.07842
1.07797
1.07664
1.07414
1.06916
1.0637
1.05826
1.05185
1.04508
1.03831
1.03321
1.02917
1.02514
1.02271
1.02195
1.02121
1.02201
1.02537
1.02876
1.0327
1.03828
1.04492
1.05208
1.05957
1.06659
1.0732
1.0779
1.08137
1.08341
1.08288
1.08121
1.07789
1.07276
1.06703
1.06091
1.05467
1.04839
1.04211
1.0369
1.03256
1.02824
1.02556
1.025
1.02445
1.02472
1.02671
1.02976
1.03365
1.03962
1.0466
1.05421
1.06233
1.07004
1.07741
1.08296
1.08699
1.08932
1.08898
1.08745
1.08387
1.07879
1.07292
1.06592
1.05874
1.05154
1.04572
1.04072
1.03656
1.03241
1.02959
1.02895
1.02832
1.02833
1.03005
1.03289
1.03653
1.04205
1.04851
1.05562
1.06333
1.07079
1.07783
1.08386
1.08837
1.09119
1.09214
1.09091
1.08788
1.08334
1.07774
1.07108
1.0642
1.05717
1.05066
1.04495
1.04024
1.03676
1.03431
1.03364
1.03299
1.03292
1.03493
1.03795
1.04167
1.04683
1.05271
1.05921
1.066
1.07283
1.07929
1.08483
1.089
1.09163
1.09261
1.09168
1.08915
1.08527
1.08021
1.07437
1.06819
1.06182
1.0558
1.05032
1.04567
1.04224
1.03978
1.03928
1.0388
1.03875
1.04094
1.04402
1.04776
1.05279
1.05832
1.06439
1.0706
1.07661
1.0821
1.08687
1.09033
1.09245
1.09311
1.09214
1.0897
1.08607
1.0815
1.07618
1.0705
1.06488
1.05968
1.05486
1.05073
1.04777
1.04555
1.04481
1.04491
1.04571
1.04877
1.05182
1.05489
1.0596
1.06475
1.07042
1.07596
1.08122
1.08569
1.0894
1.09193
1.09324
1.09331
1.09207
1.08954
1.08598
1.08158
1.07658
1.07133
1.06612
1.0612
1.05706
1.05344
1.05088
1.04901
1.04856
1.04898
1.05006
1.05328
1.05649
1.05973
1.0642
1.06898
1.07407
1.07912
1.0839
1.08794
1.09116
1.09341
1.09434
1.0941
1.09268
1.09006
1.0866
1.08253
1.07802
1.07331
1.06867
1.06432
1.06057
1.05752
1.05551
1.05399
1.0538
1.05446
1.05583
1.05852
1.06171
1.06552
1.06983
1.07424
1.07869
1.08297
1.08702
1.0904
1.09278
1.0945
1.09466
1.09404
1.09272
1.09011
1.08706
1.08344
1.07943
1.07522
1.07119
1.06752
1.06446
1.06208
1.06043
1.05965
1.05978
1.06089
1.06248
1.06513
1.0682
1.07181
1.07582
1.07993
1.08406
1.08784
1.09134
1.09402
1.09596
1.09732
1.09731
1.09666
1.0953
1.09292
1.09021
1.08705
1.08373
1.08041
1.07728
1.07457
1.07216
1.07055
1.06946
1.06877
1.00009
1.00164
1.0032
1.00475
1.0063
1.00785
1.00941
1.01179
1.01445
1.01709
1.01975
1.02239
1.02504
1.02894
1.03392
1.03891
1.04389
1.04888
1.05387
1.05938
1.06609
1.0728
1.07951
1.08624
1.09297
1.09933
1.10026
1.10121
1.10218
1.10316
1.10417
1.10519
1.10287
1.09985
1.09682
1.0938
1.09078
1.08776
1.0873
1.08859
1.08989
1.09122
1.0926
1.09399
1.09502
1.09545
1.09589
1.0959
1.09454
1.09321
1.09114
1.08382
1.0765
1.06919
1.06102
1.05286
1.04469
1.03708
1.02955
1.02203
1.0152
1.00858
1.00198
1.00062
1.00205
1.00355
1.00653
1.01076
1.01505
1.02182
1.03193
1.04204
1.05209
1.06202
1.07196
1.08054
1.08325
1.08602
1.08834
1.08422
1.08013
1.07611
1.06782
1.05931
1.05081
1.04237
1.03394
1.02552
1.01891
1.01304
1.00717
1.00422
1.00323
1.00228
1.00376
1.0078
1.01321
1.01983
1.02837
1.03782
1.04753
1.05734
1.0667
1.07545
1.08153
1.0863
1.09007
1.08867
1.08616
1.08226
1.07524
1.06754
1.05918
1.05097
1.04279
1.0346
1.02793
1.02203
1.01613
1.01248
1.01067
1.01024
1.01141
1.01468
1.0196
1.02561
1.03345
1.04225
1.05133
1.0604
1.06908
1.07672
1.0828
1.08722
1.08972
1.08995
1.08785
1.08446
1.07829
1.07128
1.06341
1.0549
1.04617
1.03748
1.03054
1.02476
1.01897
1.01511
1.01321
1.01288
1.01403
1.01742
1.02274
1.02916
1.0375
1.04636
1.05621
1.06618
1.07554
1.08373
1.08992
1.09402
1.09586
1.09527
1.09253
1.08804
1.08195
1.07475
1.06675
1.05847
1.05009
1.04217
1.03515
1.02887
1.02364
1.01972
1.01751
1.01679
1.01726
1.01972
1.02445
1.03036
1.03841
1.04769
1.05799
1.06869
1.07893
1.08796
1.09498
1.09991
1.10249
1.10243
1.09971
1.0949
1.0884
1.08058
1.07181
1.06252
1.05385
1.04584
1.03886
1.0329
1.02825
1.0248
1.02316
1.02252
1.02277
1.02489
1.02886
1.0339
1.04102
1.04946
1.059
1.06899
1.07872
1.08773
1.09519
1.10064
1.10387
1.10471
1.10282
1.09879
1.09296
1.08561
1.07731
1.06857
1.05967
1.05138
1.04436
1.03798
1.0336
1.03036
1.02892
1.02854
1.02901
1.03139
1.03522
1.03998
1.04644
1.05411
1.06273
1.07174
1.08066
1.08896
1.09593
1.10096
1.10396
1.1048
1.10323
1.09969
1.09452
1.088
1.08055
1.07264
1.06463
1.05692
1.05007
1.04402
1.03961
1.03628
1.03494
1.03472
1.03537
1.03818
1.04224
1.04717
1.05345
1.06055
1.06838
1.07642
1.08425
1.09148
1.09756
1.1018
1.10423
1.10473
1.10313
1.09972
1.09487
1.08889
1.08204
1.07487
1.06773
1.06101
1.05499
1.04977
1.04556
1.04284
1.04153
1.04161
1.04265
1.04594
1.04999
1.05468
1.06107
1.06767
1.07482
1.08205
1.08872
1.09454
1.09934
1.10255
1.10413
1.10405
1.10223
1.09877
1.09408
1.08842
1.08204
1.07536
1.06879
1.06263
1.05721
1.05264
1.04904
1.04676
1.04577
1.04633
1.04767
1.05116
1.05521
1.05984
1.06585
1.07219
1.07887
1.0851
1.09119
1.09643
1.10046
1.10297
1.10402
1.10365
1.10179
1.09838
1.09393
1.08876
1.0831
1.07718
1.07132
1.06584
1.06113
1.05727
1.05438
1.05264
1.05212
1.05276
1.0545
1.05747
1.06135
1.06598
1.0715
1.07719
1.08308
1.08864
1.09383
1.09782
1.10107
1.10301
1.10347
1.10265
1.10062
1.09734
1.0932
1.08851
1.0835
1.07836
1.0734
1.06887
1.06506
1.06208
1.05999
1.0589
1.05894
1.05996
1.06194
1.06492
1.06867
1.07303
1.07784
1.08289
1.08792
1.09269
1.09691
1.10035
1.10287
1.10434
1.10454
1.10367
1.10179
1.09894
1.09538
1.09136
1.08715
1.08296
1.079
1.07546
1.07257
1.07051
1.06911
1.06841
1.00011
1.00153
1.00296
1.00439
1.00582
1.00724
1.00867
1.01102
1.01365
1.01629
1.01892
1.02156
1.0242
1.02821
1.03344
1.03868
1.04392
1.04916
1.05441
1.06039
1.06808
1.07578
1.08348
1.09119
1.09891
1.1062
1.10693
1.10771
1.10851
1.10935
1.11021
1.1111
1.10767
1.10332
1.09896
1.09462
1.09028
1.08593
1.08546
1.08764
1.08982
1.09209
1.09447
1.09684
1.09907
1.10105
1.10303
1.10409
1.10219
1.10033
1.09778
1.09013
1.08249
1.07484
1.06536
1.05587
1.04639
1.03748
1.02863
1.01978
1.01239
1.00545
0.998533
0.996155
0.996251
0.996478
0.999841
1.00587
1.01196
1.02077
1.0332
1.04564
1.05791
1.06987
1.08185
1.09227
1.09583
1.09949
1.10256
1.09652
1.09056
1.08468
1.07468
1.06448
1.05429
1.0442
1.03412
1.02403
1.01576
1.00822
1.00071
0.99689
0.99555
0.994277
0.995775
1.00022
1.0074
1.01578
1.0258
1.03723
1.04927
1.06136
1.07278
1.0833
1.09183
1.09809
1.10201
1.10172
1.09872
1.09352
1.08538
1.07625
1.06583
1.05508
1.04424
1.03341
1.02456
1.01672
1.0089
1.00378
1.00091
1.00089
1.00252
1.00624
1.01317
1.02139
1.03188
1.04375
1.05592
1.06759
1.07836
1.08756
1.09458
1.09943
1.10201
1.102
1.09947
1.09503
1.0878
1.07882
1.0685
1.0578
1.04701
1.03653
1.02774
1.02003
1.01236
1.00688
1.0037
1.00359
1.0051
1.0089
1.01587
1.02531
1.03681
1.04924
1.06246
1.07551
1.08757
1.09789
1.10543
1.11016
1.11192
1.11047
1.10627
1.09998
1.09213
1.08299
1.07297
1.06241
1.05166
1.04174
1.03268
1.02433
1.01799
1.01277
1.00895
1.00805
1.00877
1.01206
1.01827
1.02689
1.03774
1.05014
1.06363
1.07733
1.09025
1.10159
1.11028
1.11614
1.11897
1.11847
1.1146
1.10811
1.09955
1.08941
1.07843
1.06715
1.05619
1.04577
1.03662
1.02862
1.02309
1.01874
1.01603
1.01534
1.01582
1.01863
1.02381
1.03103
1.04063
1.05202
1.0647
1.07771
1.0901
1.10121
1.11008
1.11627
1.11964
1.12004
1.11711
1.11168
1.1041
1.09475
1.0843
1.07342
1.06257
1.05244
1.04339
1.0352
1.02965
1.02539
1.02308
1.02283
1.02377
1.02677
1.03154
1.03808
1.04678
1.0572
1.0688
1.08077
1.09227
1.10262
1.11097
1.11665
1.11966
1.11996
1.11728
1.11226
1.10531
1.09685
1.08734
1.07738
1.06739
1.05791
1.04945
1.04199
1.03627
1.03207
1.02991
1.0298
1.03098
1.03455
1.0396
1.04621
1.05446
1.064
1.07446
1.08518
1.09539
1.10449
1.11186
1.1167
1.11915
1.11912
1.11649
1.11166
1.10515
1.09732
1.08853
1.07944
1.07047
1.06206
1.05455
1.04812
1.04293
1.03949
1.03762
1.03752
1.03892
1.04274
1.04779
1.05438
1.06261
1.07141
1.08076
1.09019
1.09891
1.10644
1.11244
1.11623
1.11783
1.11724
1.11445
1.10966
1.10343
1.09615
1.08804
1.07963
1.07137
1.06365
1.05688
1.05119
1.04675
1.04387
1.04255
1.04301
1.04474
1.04855
1.05361
1.05989
1.06758
1.07581
1.08434
1.0926
1.10029
1.10689
1.11194
1.11499
1.11608
1.11529
1.11267
1.10813
1.10233
1.09571
1.08854
1.08108
1.07374
1.06693
1.06106
1.05624
1.0526
1.05039
1.04969
1.05037
1.05241
1.05595
1.06068
1.06643
1.07322
1.08049
1.08802
1.09516
1.10161
1.10678
1.11073
1.11311
1.11363
1.11249
1.10978
1.10551
1.10018
1.09418
1.08783
1.08142
1.07527
1.06969
1.06498
1.06126
1.05861
1.05719
1.05715
1.05833
1.06069
1.06428
1.06885
1.07419
1.08011
1.08636
1.09259
1.09851
1.10371
1.10793
1.11098
1.1127
1.1128
1.11154
1.10904
1.10536
1.10081
1.09573
1.09042
1.08516
1.08022
1.07581
1.07227
1.0698
1.06815
1.06732
1.00013
1.00143
1.00274
1.00404
1.00534
1.00665
1.00795
1.01025
1.01287
1.01549
1.01811
1.02074
1.02337
1.02751
1.03299
1.03848
1.04397
1.04948
1.055
1.06145
1.07012
1.07879
1.08747
1.09618
1.10488
1.11308
1.11362
1.11421
1.11484
1.11553
1.11625
1.11703
1.11247
1.10679
1.10112
1.09544
1.08977
1.08411
1.08362
1.08669
1.08976
1.09298
1.09633
1.0997
1.10312
1.10663
1.11018
1.11228
1.10984
1.10747
1.10443
1.09646
1.08851
1.08056
1.06976
1.05895
1.04815
1.03793
1.02778
1.01762
1.00965
1.00236
0.995111
0.9917
0.990453
0.989418
0.993191
1.00103
1.00897
1.01984
1.03462
1.04939
1.06391
1.07784
1.09183
1.10404
1.10843
1.11298
1.11679
1.10883
1.10101
1.09331
1.08161
1.06974
1.05789
1.04612
1.03438
1.02264
1.01268
1.00345
0.994277
0.989564
0.987866
0.986272
0.987738
0.99246
1.00104
1.0111
1.02307
1.03616
1.05012
1.06405
1.07736
1.08931
1.0994
1.1072
1.11212
1.11319
1.11013
1.10478
1.09551
1.08492
1.07253
1.05928
1.04579
1.0323
1.02124
1.01145
1.00171
0.995019
0.990899
0.990982
0.993327
0.998591
1.00797
1.01883
1.03255
1.04785
1.06341
1.07816
1.09143
1.1023
1.11007
1.1149
1.11682
1.11542
1.11132
1.10495
1.09638
1.08556
1.07312
1.06023
1.04739
1.03552
1.02499
1.01535
1.00576
0.998651
0.994136
0.993689
0.995538
1.00068
1.0093
1.02206
1.03719
1.05376
1.0708
1.08726
1.10221
1.11479
1.12378
1.12916
1.13074
1.12823
1.1222
1.11361
1.10321
1.09146
1.07889
1.06583
1.05296
1.04056
1.02926